ITEM: TIMESTEP
100000
ITEM: NUMBER OF ATOMS
15812
ITEM: BOX BOUNDS pp pp pp
0.0000000000000000e+00 4.0459931049461368e+01
0.0000000000000000e+00 4.0459931049461368e+01
0.0000000000000000e+00 4.0459931049461368e+01
ITEM: ATOMS id vx vy vz
11347 -2.27828 -0.632959 1.04311
6396 -0.313003 1.56294 -0.133469
15585 1.02081 -1.20908 -0.526161
2922 -1.32079 3.3399 0.430493
2849 -0.457754 1.5411 -1.36949
15365 1.35147 -1.19332 -0.187931
11129 1.84148 -1.16378 2.1061
5081 -1.24864 0.450014 2.39164
13457 -0.0320043 1.96084 2.69582
11217 0.948688 0.114765 0.0626184
7717 -1.94747 -0.358732 -1.33406
7620 1.43197 -0.0240505 -0.642957
428 -0.725846 -2.78059 -0.0739614
6990 1.83741 0.406816 -1.09916
11542 0.12433 1.58645 -1.08259
2506 -0.193359 -2.60599 -0.0864468
8694 0.672989 -0.06628 -1.83145
8697 -1.29184 1.38485 0.475595
13718 -0.148237 0.22336 0.886197
7414 0.405841 1.32543 -0.46498
10931 2.63883 -2.28145 0.630423
8101 0.607981 2.89914 -1.83529
13872 -0.0165266 -0.797931 0.929667
13185 -2.15895 -0.143406 2.96559
8079 0.669714 1.73558 -2.34986
9063 -1.39671 -1.57107 -0.190634
13188 0.349375 -1.75235 0.101432
12074 -0.837338 -2.18139 -3.27777
14968 0.843529 1.18673 -0.729653
10210 2.2641 0.750395 -2.24811
4135 3.05903 -0.339505 1.22685
15158 1.68433 2.31237 -0.333117
8404 -1.18422 -2.36888 -2.29696
5296 -1.78859 2.0626 0.804945
14837 0.076807 0.446565 1.35856
9573 -1.08822 2.0263 0.762625
8224 -2.87243 2.53199 1.5519
12149 -1.40596 -0.656511 0.948216
2536 -0.556235 1.73981 -3.77028
10344 1.7374 -1.12616 3.18093
7869 -1.8059 -0.473684 2.04364
12082 1.66887 0.664053 -0.118929
9216 0.625144 -0.532544 -0.728047
4305 3.26187 0.08668 -1.02297
6706 2.71769 2.62432 -0.199511
893 -1.20532 0.0438092 5.23293
571 0.760056 -0.950754 -2.43689
11363 -0.767208 0.731352 -1.50337
10111 2.37397 2.90319 1.8173
11813 3.68453 -1.30359 1.54549
15062 -0.361256 -0.502822 -0.872678
6850 -0.262561 2.9603 2.83632
6364 1.93556 0.874289 2.7256
9986 -0.787448 3.12308 -0.595791
13110 -1.94172 0.58141 -2.16002
7562 1.70904 1.67167 -1.87984
8781 3.96873 2.22571 0.524174
4819 -1.7666 -0.765721 -1.46276
6235 -0.170369 -1.70375 -0.689527
5787 2.5675 1.43907 4.45128
92 2.2532 0.91897 -1.94367
6963 -1.6612 -0.150137 -1.71369
8911 -2.14522 -0.670618 1.87788
7946 2.11877 -0.229992 -3.22396
6497 -1.61405 2.4256 3.33498
10247 1.73592 2.77555 0.317319
9360 -1.13073 1.83664 -0.896683
11234 3.53372 0.288105 -0.831611
2301 -0.725016 3.20292 2.31482
13429 0.851144 0.296045 0.154985
6601 3.16605 -0.769838 -0.62481
12755 -1.16134 0.143336 1.75826
12263 0.55091 -2.62032 -0.571032
6656 1.20057 3.08888 -3.09216
14409 -1.43433 -1.47944 0.656674
9462 0.944386 1.32435 -0.472251
3388 -3.38216 -1.26338 -0.548007
9728 -2.47689 1.37906 0.415036
2259 1.18445 1.22689 -1.35278
4675 -1.5933 -2.42531 -1.49938
8769 0.29923 -0.857704 -0.606364
5701 0.283478 2.60203 -3.40184
12170 1.35114 -3.4287 -1.30013
4161 -1.68381 1.84431 2.76687
949 1.366 -0.0756903 0.37959
588 -2.15441 1.40118 2.20155
846 0.485796 -2.87705 2.23796
2028 3.33281 0.207152 2.60499
12887 -0.860236 1.36445 -0.230701
1985 2.56421 1.68418 1.99743
15698 1.41713 -0.564498 0.0246549
2075 -1.80343 -2.05144 1.47864
423 -0.875036 -0.371141 -2.34766
3514 0.11041 0.600484 2.33566
5112 -0.438069 1.45751 -1.60723
8788 -0.37272 -0.812359 -0.821297
9461 -1.09697 1.12733 -1.00693
7872 0.0743826 -1.87126 0.29338
3528 2.9313 0.102791 -2.18388
10471 -0.577146 0.457107 -1.28246
4160 -3.19643 0.841797 2.66983
9718 -0.293364 3.2819 1.94971
11031 1.08053 -0.271322 1.3993
1862 1.47339 2.16174 -0.290575
6721 -1.10079 -1.6423 -1.45315
4673 1.48672 0.541856 -1.01421
6020 1.59775 1.97067 0.665275
1216 -0.167287 0.406224 -1.48394
623 3.99173 2.60465 -2.86801
14344 1.33769 2.81449 2.14045
5230 -0.218513 1.05769 -3.13161
2899 -0.528998 -2.6883 -1.88118
8603 -0.724694 -1.63729 0.150336
5249 1.21794 -0.242982 -1.72383
7016 2.14803 -0.00451419 2.46177
1742 -3.46239 -0.149358 2.09196
395 -0.262049 2.01712 3.15654
725 2.68872 1.97423 0.324277
9517 -2.20872 2.88627 0.634374
10726 0.16884 2.75359 2.26455
12102 0.175233 -1.23525 -3.41907
4181 -1.23364 -0.217441 2.52699
13201 3.12772 2.03201 -0.269777
3396 0.389195 0.0158224 -0.914528
12041 -0.71116 1.08159 -0.117243
3412 -4.01723 -0.501217 -3.20404
8530 0.438781 1.00121 -1.04987
3041 1.19872 0.641906 0.79735
6583 3.57271 -0.32539 1.00592
13945 1.50302 -0.274459 2.265
820 0.954046 -1.63767 -3.10639
8201 -3.1447 4.00763 -1.67277
5239 -1.59973 0.886123 0.514908
7191 -2.18184 -0.440543 1.48371
4544 0.00653619 -0.300463 -1.56728
12463 -0.835837 0.46448 -1.36825
15074 2.2231 -2.24176 2.21756
12256 0.719825 3.25174 3.16329
237 -0.4326 0.309307 -2.66157
12892 2.07715 1.59517 -0.634437
14338 -0.180382 -0.26963 -1.62985
4765 -1.54438 -3.00089 -0.205763
236 0.494261 0.213059 1.75423
43 -1.22979 -3.23737 -1.72841
10488 0.340343 -3.23764 1.83259
3572 1.38374 0.30052 -0.869777
12234 0.116304 0.853966 0.492546
118 -1.29609 -0.183019 0.960151
14814 3.1854 1.34528 -1.84062
5323 1.04278 0.521708 2.77344
8216 2.55386 -0.435262 -0.0334259
297 0.97879 -1.36371 1.33602
3921 -3.64455 1.11852 -1.82827
7175 -3.961 -0.074475 1.43115
8232 -2.91365 1.14247 0.791052
14895 -1.47482 0.699601 0.942586
3014 -0.337964 2.96508 0.510187
3326 1.20503 0.166938 -1.69472
13663 -2.68069 0.555854 0.448557
13162 -1.74526 -0.844572 -0.00552482
960 -3.29292 0.649942 -1.16813
3651 -0.647305 -2.6154 -1.79104
10752 3.33033 -1.29445 -3.85095
2239 1.11149 -0.0348008 1.67411
5754 1.41284 -2.43086 0.105324
6180 -0.995913 0.823925 0.0953335
7209 1.79492 -1.60287 0.0870917
6145 -1.46512 0.0854752 1.69264
4322 -0.0233653 -1.72326 1.29587
4741 0.317278 0.124141 2.35163
4999 -1.16524 -2.51017 -1.41121
2831 -1.57703 1.64757 -1.38593
12589 1.99119 -1.06358 3.22753
3813 -1.81677 -1.01508 -0.732639
9299 3.38567 -0.90435 2.09412
6997 0.159713 2.9685 -0.839921
12188 0.185471 1.85811 -1.85806
2454 0.920974 -1.11787 -1.4198
4197 -1.25065 -0.171394 -1.35702
1793 -0.974575 -0.453567 -0.265233
218 1.35381 0.0200187 3.35433
12201 0.981257 0.42247 0.117484
15441 -0.630311 -0.249155 2.96805
3919 0.718377 2.02654 -2.91716
8401 2.19761 1.64302 -0.382776
5159 0.790427 -1.26595 -0.641838
5839 -0.242623 1.69794 -0.812566
4820 2.73657 1.73949 -1.08828
6432 0.311857 0.938451 -0.829928
550 -1.01268 0.799747 1.43405
10618 -0.579021 -3.02162 -1.57877
5863 -0.313798 -0.895195 1.74405
14314 -3.28353 -2.0854 -1.91144
11516 0.0835764 -0.619825 -1.16414
4556 0.712442 -1.03322 1.20447
11913 1.89206 -3.58923 1.13313
8386 1.28004 1.28942 2.45332
15205 2.75388 1.02661 -0.554145
7540 -0.605122 -0.365925 -0.480169
14709 0.0424031 -0.185697 2.41029
6401 0.633685 -1.03388 -1.72975
2314 2.12887 1.61748 -0.590385
11141 -1.3203 -0.751325 0.558679
3802 1.44493 -0.756866 0.250353
11587 -1.56561 1.52849 -0.587593
1099 -0.989472 -0.335985 -1.8856
3841 -1.58382 -0.35938 -2.35949
7346 2.2247 0.660136 -1.75365
7534 -1.3545 1.5579 -1.12113
422 0.176228 -2.20403 -3.18141
2114 -0.376187 0.764729 -3.28084
3535 0.261664 0.12846 -0.101287
8478 0.287724 0.585163 2.16551
5802 -3.51291 0.58342 -1.75594
6096 1.27278 -2.19657 -1.85496
5494 -1.35423 4.18359 -2.99922
5134 2.5234 -0.365712 -1.8855
13837 -2.34948 -0.369086 -0.943043
12738 0.613979 -1.99144 0.154848
241 -0.427829 -1.754 -1.6026
15341 0.217696 -1.5163 0.290148
7608 -3.06514 0.73726 -3.5375
14011 1.74117 3.69826 2.93
13592 0.875616 -1.50504 2.67139
10145 -0.71934 1.66562 -1.66369
15322 -0.830171 -1.13247 -1.07419
8287 0.806225 0.613298 -0.934265
8949 0.000705928 2.10189 -4.68104
11959 1.51081 0.709076 -0.505533
2829 -1.11727 -5.11046 0.958902
11978 -0.0984966 -1.11367 -0.282925
12566 -3.42848 -0.849771 -1.66771
15520 -2.11286 -0.716334 0.222045
3466 1.76373 0.66774 2.27841
12854 2.30415 1.28426 -2.00397
8107 0.8933 -0.720129 1.31762
7892 2.72939 -1.7384 -0.872914
2213 0.603263 -2.148 1.68391
9409 0.00918659 1.12088 6.4417
942 -1.15932 0.361064 -3.8384
13748 -2.7318 2.36804 2.42794
4469 3.11938 2.591 -1.43992
154 0.197446 3.34866 1.44152
2373 1.13499 3.30193 -3.41223
5499 2.37186 2.01719 -2.32255
12893 -1.89794 -3.57746 0.745436
12068 0.277484 -1.85078 -1.18448
2466 0.919937 -2.93896 3.29233
11420 -4.04215 -2.13747 -3.38201
322 -0.831579 1.92879 -3.2157
98 -0.670501 1.12497 -1.49444
15141 0.904084 1.52918 -1.73411
5427 -0.790146 -0.970702 0.019831
10930 -2.80538 -1.66768 3.43247
7678 3.13204 -0.384463 3.98026
5374 -1.31681 -0.927578 -0.607199
2712 0.276852 3.22456 -0.101617
2859 -1.52753 -0.559321 3.02743
11148 0.289502 1.75714 0.844308
4582 2.22839 -1.46588 0.384689
3215 -3.10812 -1.21175 -1.50385
13546 0.711791 -2.64113 -2.40476
486 -0.103364 3.53331 -0.495818
13509 -0.75505 2.26823 1.46962
9908 -1.72575 0.876065 -2.5555
14072 0.0536193 2.84288 -0.00439656
1156 2.52845 0.0524489 -0.36901
5707 -0.556206 2.74814 -0.687196
15416 2.28749 -0.919027 1.77376
839 -2.6793 -0.389199 -1.67318
15618 -4.1878 0.250021 -0.692251
2823 -1.60026 3.59824 -2.77029
10924 1.04844 1.41324 -1.29017
3916 0.393711 -0.0180555 -2.13958
14522 1.68365 1.8432 -0.553377
2525 -2.98045 2.61735 -1.28595
14043 0.378022 -1.3116 -0.0451828
8323 2.71675 1.96273 -3.16191
964 1.4346 -1.66257 -1.87282
4056 1.53444 1.79641 -3.50139
5270 -2.17735 0.16239 -0.189709
3311 -1.74802 1.20403 0.293835
249 1.25504 2.27533 -0.654789
6609 1.83664 0.14857 1.25575
7886 2.92419 0.123848 -3.7734
10547 -2.32351 -1.25795 -0.819371
220 1.76452 -1.5397 0.434781
14599 -0.0357229 -2.95992 -0.930769
7566 1.25061 -0.0498392 -0.236273
15357 1.2912 -1.69787 -3.8012
6359 -2.26393 -1.80002 -0.291546
822 -1.18562 -2.18808 -0.542308
14126 -0.993197 0.979806 1.73129
9085 1.96182 -0.304734 -0.394296
12390 2.32908 -1.40706 -1.86714
9878 -2.17574 -0.0692108 1.68327
2729 0.0209919 1.27414 -0.601332
3740 0.441117 0.6195 -1.74976
6563 -1.04953 0.558452 2.13876
9570 -0.490764 -0.637163 -1.92325
11459 0.890093 -1.69218 2.81115
6469 -0.909067 -2.73635 0.883094
8675 -0.387755 0.0974349 3.17737
6273 -0.902273 -0.0816603 1.3659
896 -2.2 -0.606859 2.69863
12779 -0.796472 -0.769788 0.77633
7005 0.566141 0.325479 0.921937
5996 -2.21651 0.54615 -2.18226
5620 0.138684 4.04658 -0.46184
13423 0.637178 -0.965285 2.70314
14238 -2.19449 -3.0977 -0.178505
9622 1.50814 -1.84918 -2.59987
3090 0.617247 -5.30313 2.50296
15705 1.36211 2.0904 1.19216
12659 1.3431 -1.58304 2.15493
11199 -0.108959 -1.94074 2.54883
8303 1.45439 0.739535 -1.56525
7032 1.79118 -1.49061 -1.8306
5730 2.60786 1.37588 3.64748
2399 1.15178 -0.369442 1.01858
14879 3.47777 1.54786 1.88346
7501 -2.88861 -1.15409 -1.20086
15788 -0.701881 -1.93828 1.55819
10024 -0.476869 0.930715 -1.99626
1486 -0.309707 1.11247 -2.41483
6913 -2.52473 -0.190706 2.04258
336 1.71026 -4.11706 3.24951
974 1.48222 2.69199 0.465772
10563 -1.3695 1.52098 0.696203
10092 -1.04127 -0.57784 2.44599
5989 0.15159 0.522122 -0.770121
9136 -0.405977 3.06313 -0.616325
3379 -0.974893 -0.285815 2.01226
29 -0.0264166 -2.03357 2.24284
13527 2.33614 -5.08614 -0.0694086
12543 -3.21296 -3.42759 -1.87934
13990 0.276543 0.141038 -0.940888
7229 -4.18454 0.366263 -0.991651
11501 1.92383 -0.326717 -2.81054
3391 2.05526 -0.453752 -2.71995
15088 3.31052 0.646753 -1.90933
12604 -1.54309 -1.59861 0.0662152
2774 -2.26801 0.147499 1.15167
2692 -1.12706 -0.0147975 0.00189502
11931 1.31548 -1.35205 0.165737
5448 -2.85969 3.51315 3.98098
7502 -0.382947 -0.816456 0.473535
8207 0.0932395 -1.66691 1.05688
1109 -1.75373 -1.52379 3.95132
10115 1.87117 2.29832 -0.861534
13325 -0.596945 4.76458 0.937251
499 1.71133 2.83956 -0.910571
7637 -0.201795 0.16208 1.59303
6585 3.171 -0.6037 1.13768
2330 -0.964291 0.402262 -1.28092
6058 0.522683 0.775442 1.15513
9902 -0.884644 -1.9906 1.66568
1008 0.854013 0.430583 -2.53836
11816 -1.36788 -0.623819 1.89281
15144 1.34479 -0.877784 -0.00318999
4492 -0.705806 1.91267 1.95561
14899 1.26537 -1.13861 -1.6727
14574 0.592605 2.58898 -1.81295
10152 -2.23812 0.726271 2.71317
3169 1.09939 -0.602767 0.146138
4862 3.6798 -2.4002 -0.449366
2248 -0.512873 1.56777 0.950863
12831 -1.3494 -0.400264 1.21242
13449 0.15284 -2.55391 -1.83836
4737 -1.71024 -0.617618 0.912354
7937 0.0331108 0.650269 0.46001
1177 -2.07649 -0.0331692 1.28032
14016 -0.352899 -0.876283 2.55886
2318 -2.04855 0.299931 1.01095
12435 -1.46693 1.1206 0.612033
3271 0.963959 2.11159 1.11867
6558 -3.02004 -0.627942 0.751484
5224 1.73965 -1.43392 1.46619
6724 -0.0536083 0.0122064 1.32741
4365 1.86886 -1.10887 0.736789
9553 0.732813 3.66824 -1.68437
3305 -1.0691 -0.562893 -0.858469
8950 0.832025 2.73802 2.75203
2520 1.01412 0.91704 1.84643
13730 1.42983 0.134466 2.32397
10575 -2.4867 -1.69025 0.125881
11207 0.729594 1.14375 3.12069
1015 -2.37186 0.629606 -1.6483
3453 2.36027 1.33318 1.63076
1076 -0.124083 0.360711 0.535103
2369 0.418547 -1.60456 -0.388443
10716 -1.69118 -1.69562 -0.239246
6456 -1.33713 -0.880747 -1.01228
1377 0.176732 1.37937 1.06158
496 -0.067322 1.29401 -1.47979
5572 0.11345 -0.775397 -2.71038
1906 -2.3886 -2.20979 -0.863203
13734 -0.0861742 1.77593 1.21034
13437 -2.76378 0.481238 1.96535
7622 1.66114 1.81854 -0.579345
15001 1.65877 0.129934 -1.08145
11238 0.432381 4.86835 2.15735
14716 -0.824118 -4.58146 -0.330565
5687 0.927572 0.486252 2.46622
3889 1.62159 -2.75284 -1.12264
10389 -1.63847 -0.776443 -4.14584
8138 -2.32889 0.529917 -0.442639
9195 2.0561 -2.42633 -1.599
15704 -0.0339931 2.44861 -0.23165
213 -1.08017 1.218 0.66646
12691 0.620637 -2.37992 1.73108
7337 0.523585 -1.45393 3.72757
9829 2.48577 -1.30485 -1.57468
2912 1.7436 1.74625 -0.736409
13744 3.60772 -1.12477 -0.818956
12299 0.298373 -0.281361 2.32509
10564 -3.02296 -0.688795 0.742738
4769 -0.698534 2.44047 0.371089
12285 -0.557559 0.152342 -2.79045
7992 0.677352 2.13578 -1.35397
9349 -1.25591 -0.521989 1.36646
11643 0.613959 -1.21505 2.8245
11181 0.433352 0.0941739 0.424335
14056 3.35131 -2.48511 1.31009
1197 3.51446 0.494481 0.859512
6056 -1.64261 3.12373 -1.12625
8031 1.92549 -1.99582 -2.72379
5031 -0.637907 -0.283474 -1.33807
2744 -0.424027 -2.87631 0.298635
8469 1.49748 2.99121 0.417994
6961 -2.14616 -0.739297 3.79141
1113 0.528312 2.54117 2.39466
5500 -1.64379 -2.58214 1.40944
1130 1.70585 2.74291 1.12298
9974 1.7805 -0.452138 -0.699972
6069 1.83823 -0.478332 1.70981
7626 -1.32591 2.98053 -0.137485
9972 3.36657 0.544547 1.92819
10980 1.14571 0.691397 -2.38086
5521 2.11856 -1.83993 3.04391
11926 2.10444 -2.17834 2.29701
10209 -1.40966 2.97617 2.29951
13143 2.53716 0.243523 4.0985
6282 0.442228 -2.01554 3.62267
14223 -1.79893 1.44631 1.53892
425 0.732477 -1.49079 -0.0259928
4922 0.588972 4.26635 3.39406
13757 0.736497 -1.8913 -0.580518
8071 0.193887 -0.790334 -1.94742
15367 1.23273 -3.6849 -1.57983
9864 -1.35546 -1.33492 -1.28281
15330 -1.14102 -0.918008 0.117475
8857 -0.174244 0.729201 -0.401587
7654 -0.304034 -0.773335 -2.48864
2626 -0.0801311 0.203209 -2.71572
14362 -1.52481 -2.86462 -1.31985
15072 -2.95642 -1.80959 -0.338718
7845 -3.63099 -0.859345 2.89885
6572 -0.108379 -0.852364 -1.23805
14506 -0.277629 0.735314 1.28424
14165 -0.218959 1.45099 1.95497
3643 -3.09517 -0.0592629 0.918511
4270 2.43945 4.03527 1.71542
13505 4.27798 -0.0790553 -0.93687
3848 -0.126541 -1.38615 0.90913
12827 -1.30777 -0.147384 0.348653
13535 2.06686 0.984254 -0.810727
6018 0.389353 -0.665561 -1.11337
6912 -0.635253 0.722872 -0.743911
903 2.43481 3.0357 0.611141
12707 -1.47096 -1.57264 1.66251
5662 -2.05463 -1.95747 -1.12814
257 0.0735663 0.110455 -1.15219
276 0.579833 -3.71239 -3.40426
14667 -2.57102 -2.51492 1.12343
1316 -0.168716 3.12741 0.238265
7803 -4.12789 1.41945 -0.288812
11781 -1.08719 -0.654831 2.11171
4796 2.05845 1.70797 -0.213745
1353 -1.469 0.447557 0.553766
13962 1.48716 -2.10023 3.22709
4301 -2.08189 2.79403 -0.0616905
11189 -1.20678 -0.837186 0.275951
11074 -0.555503 1.15093 3.54482
13168 0.224102 -1.75294 2.95433
6053 1.09945 0.92908 -0.393415
15085 -0.104044 1.2879 -0.897896
12985 0.945702 -1.90722 -4.86649
5088 -0.0548114 0.0308175 -0.818636
5002 0.220919 -0.895078 -0.442872
14117 -3.783 3.04584 1.40227
11379 1.14736 0.288275 0.0716178
880 4.46118 0.565904 1.43028
8822 -0.464067 2.69288 2.04619
8278 1.81993 -0.6119 3.20278
3168 2.6569 1.37653 2.72346
3835 -3.422 -1.16385 2.51891
2895 -0.748339 4.18298 0.616635
13484 2.10625 -2.5333 1.36807
11333 -0.995943 0.717556 -2.30625
10557 -0.418614 0.989987 1.92496
6173 0.564977 0.843215 3.08057
7604 -0.115913 -1.04162 0.269974
14226 -1.77074 0.667652 -0.152505
10846 -0.646378 0.397734 1.62021
1881 0.098213 -0.551579 0.217677
7600 1.7934 -0.68537 -1.10215
14736 -0.938585 0.393664 -1.98046
7189 2.5952 -0.45485 -0.869364
10649 -1.22521 0.366547 3.26864
4013 -0.316791 1.81125 -0.879975
123 -0.666319 0.462323 1.70833
5560 1.7048 -0.55105 3.00008
9123 -3.99526 2.3774 -1.06804
1444 0.209673 -0.554825 -1.10639
2113 0.987749 2.19567 0.785045
13424 2.16802 -0.922676 -1.52025
7017 -0.987271 -0.140913 -2.65317
1123 1.55077 1.20503 0.270098
14775 2.06361 1.52751 2.42989
8046 -1.59955 0.218568 -0.180281
15612 -1.66643 0.670017 1.16628
14609 -1.23833 0.788885 0.658301
10158 -2.74392 -0.653273 3.00105
1748 -2.52979 -1.38425 1.18758
8296 -2.39696 -1.14666 1.27162
12808 -2.58572 1.44089 2.66025
355 1.25828 3.35316 -1.07206
13453 2.46741 3.05035 1.29345
3558 1.14842 1.06857 -1.14674
9490 1.04221 0.0995511 -0.214537
6922 1.87496 -1.5813 -3.03429
9530 -0.990499 3.18328 1.38602
15114 -0.395291 1.17897 0.459123
13053 -2.12056 3.31276 0.0502943
1805 1.03567 2.52788 -0.658862
5535 1.15797 -2.48836 0.193767
11331 2.62102 -0.515653 0.655651
9297 3.40358 0.717713 -0.422982
5794 1.32944 4.02992 -2.04088
11626 2.54659 0.0102254 -0.0540616
4947 -0.768152 0.0931055 -1.35906
9524 1.49253 -0.270159 -0.0122565
9028 1.1058 3.73725 -0.940803
15754 -3.26938 -1.4496 0.258364
1503 -2.56428 2.35967 -1.91744
5895 2.09923 -0.413915 1.50147
9104 0.00863743 -0.913117 1.91782
13136 1.4566 -0.64088 -1.61639
9877 -0.900099 0.71889 -0.232358
4943 0.193367 1.32748 1.15426
6307 -2.22132 -0.210721 -2.31245
9171 1.67018 -1.57536 -2.57481
11757 0.352008 1.0754 0.50108
4080 -2.64292 -2.99275 1.5707
12653 2.65834 -1.30962 -0.272113
15624 0.414735 1.68688 1.82115
13114 0.0610691 1.19827 1.97557
15168 -1.50597 3.6638 0.269377
13277 -2.29129 1.22307 -0.0582418
6686 -1.04486 -1.29733 -1.70377
5862 2.50776 0.966998 2.40347
3475 -0.798159 -0.381445 -1.53785
9408 -3.04663 0.693044 0.137321
8146 5.31511 1.89459 -1.04437
1976 -1.01595 1.86156 -0.59646
5115 1.13482 -0.746204 -0.720319
2299 -2.27628 -0.305886 -1.00587
9592 -1.04166 0.32245 -2.07003
1667 -0.208304 2.51703 2.29037
15017 3.9113 -0.187886 0.0502662
10293 -0.762072 -1.34138 -2.03203
2741 2.26851 -2.79973 -1.35368
10184 0.765175 0.899298 3.25433
7789 1.30031 1.05892 0.388128
15264 -1.86612 -4.84 0.64997
3755 -2.90323 -0.614547 -1.49587
12414 -3.54341 0.150565 2.36457
3000 -3.79227 3.00951 -3.32229
11270 1.1803 -1.23157 0.851883
5603 1.89941 1.68117 -2.66335
11944 -0.787454 1.70827 -2.99726
11814 2.47882 0.748979 -2.87276
11895 0.719291 -3.07348 -0.230379
1335 -3.44541 0.853781 -0.874762
2265 0.56185 1.93261 -4.10451
149 1.3538 1.64179 3.62362
11675 -0.591404 -0.638619 1.24502
5593 -3.55418 -0.114987 -2.79823
8799 -0.769906 0.200159 -5.33181
5070 0.583219 -2.49685 1.04119
5744 -2.46714 -0.439698 2.20907
10842 -0.0807116 -2.25229 -0.575773
2068 0.320054 -0.2251 3.42005
14291 1.61524 0.61057 0.603925
327 0.0529264 1.12965 -0.864432
1103 -1.40519 -1.02452 -1.72264
5791 -0.952845 1.99577 -2.15942
1593 0.90762 -0.644143 -0.361412
10822 -0.575681 -2.63385 3.1422
5143 1.77091 0.97027 0.889348
13493 3.94052 -0.0988442 -1.34357
2894 -2.10306 1.5617 -0.890973
4347 1.08377 1.89665 1.04597
9163 0.0249866 -1.01888 -1.86115
5959 2.44163 3.06915 -0.176012
12296 -2.35938 2.80574 -1.74004
5368 2.93934 0.879386 -2.8384
8092 1.7831 0.576475 -0.276666
3314 3.97176 -3.40593 -1.17425
15768 0.83402 -1.0215 2.0639
2356 0.111004 -1.61931 0.615376
4647 -3.00068 2.37096 0.696787
9685 2.22235 3.14228 2.73745
1019 0.0430311 -1.34607 0.951216
10219 -1.53406 4.13544 -2.03423
4278 -0.639062 1.45821 -0.485047
7127 1.11363 -2.30004 -2.50717
3775 -0.742747 2.92267 -0.229638
7347 0.07066 -2.84642 3.21312
10237 -0.735745 1.28966 1.57518
5423 1.56642 0.079663 -2.07239
7749 -0.164671 -3.21874 -0.327081
9446 0.471242 -0.452176 0.869727
12933 -0.121042 -0.536708 0.925289
12585 -0.92091 -1.71038 3.15206
2972 -2.73855 1.02945 -1.53683
4481 0.489341 -1.72876 3.98436
2190 -0.0962099 -1.09411 -3.19
13365 2.44326 0.300241 -0.590375
12001 -0.521748 3.85153 -2.04636
9399 -0.836254 0.649324 -1.35741
934 -3.51778 0.223782 1.23282
13699 0.126283 0.825003 1.51078
14504 0.00842793 0.197387 1.57121
2913 -0.0850221 0.655269 -1.24789
1355 1.76177 -0.237222 0.255318
3030 0.42504 -1.25956 2.21994
6707 0.0524328 1.52733 -2.43291
7255 -1.6382 -0.203588 0.990554
9659 2.24914 0.0624348 -0.911947
13275 -3.17249 -0.277092 -1.81624
6263 3.07399 -0.855212 -1.27026
7854 -0.0236276 -0.659662 1.07605
7719 -2.92441 -2.11178 0.877208
1683 -0.430554 0.294784 -0.667864
1796 -2.51851 -1.2107 1.5126
6734 -0.315423 -0.478619 2.51426
11401 -0.719949 2.145 -1.33501
15409 1.03232 0.630161 1.01171
10085 -0.804061 -1.653 0.910198
12152 -2.53868 -2.79922 1.11521
6098 -2.26907 -3.5906 -0.00513698
1448 -0.0723959 -2.55814 0.181193
15338 -1.89685 -1.92477 1.47681
14832 1.18481 0.808701 -0.825133
7665 -0.771804 -0.859911 -1.74428
3460 -2.73737 -1.69142 1.65177
14074 0.560585 1.31317 2.97484
11447 -0.902155 -1.6515 1.36273
11820 1.49112 -0.181443 -1.58922
10971 -0.06482 -1.83965 2.18329
3548 -1.55902 0.503454 1.88343
14676 -3.39424 -0.879246 3.95825
5661 2.42912 0.879506 2.10544
344 -2.949 0.174281 1.78608
3384 1.30857 0.817579 0.962518
10964 2.20684 0.708182 -2.40763
129 0.347697 0.891316 0.202769
12817 1.3482 0.0253087 -1.85128
1388 -3.67077 -2.38311 1.40077
1654 -1.11385 -0.205948 -0.264785
463 -3.72868 1.49485 -0.326435
8269 2.12647 -0.576308 0.992377
11787 1.03941 0.00520855 2.95219
9179 0.332762 -2.7132 -1.53417
7488 1.62724 -1.3368 -0.537499
2848 1.32002 2.62211 3.08884
3561 -4.41692 0.996635 1.43637
11961 -0.28345 0.780619 -2.54167
9145 -1.18633 -0.800678 1.52713
5630 -2.80623 2.5194 0.284661
7920 0.280107 -0.0203448 0.460202
5479 1.65093 1.09369 -2.74387
14813 -1.36691 -3.54797 3.02638
6342 4.49932 -4.12826 -2.11474
7107 -2.5211 1.82443 -1.4434
8828 0.300286 1.42848 0.0361842
10855 -2.11812 -0.640815 -0.928367
12314 1.82059 4.11577 0.998855
14826 -2.86682 1.88213 0.182835
11260 -1.62972 -2.79409 0.414737
12023 1.49834 0.504158 -0.420009
2251 1.66977 0.0343349 -2.23677
3931 -1.03903 -1.96148 0.183037
9563 -1.83815 0.170061 2.57628
2578 0.857254 2.66807 1.88461
3936 2.67294 3.00012 -1.02485
14261 -3.16815 0.747512 -1.44871
3657 -2.57712 -1.67997 -1.0307
7258 -0.263876 1.02053 4.11488
12731 -2.18321 -1.18483 1.79009
14664 1.48416 -0.325368 1.34194
3226 -0.370289 -0.314227 -0.296796
13236 -2.21969 -0.759802 -0.911473
9969 -2.08632 2.62403 2.2827
5242 -1.51673 -1.70419 1.62456
1951 2.35212 -0.713987 2.11464
2465 -1.39168 0.781152 1.2099
7394 -3.27181 -0.309383 -0.494925
15583 -0.169697 1.67333 3.38278
709 -0.695918 2.01114 1.51297
50 -2.66632 2.97121 -2.10247
2765 2.14241 -2.94091 -0.342458
15295 -0.630062 -0.780419 -3.36791
6995 0.970044 -0.196831 4.15348
10352 -1.95131 -1.65851 0.0163997
11730 -1.99636 0.359567 3.43225
4615 -0.876382 1.07682 -0.734845
3149 2.20178 -0.0127644 0.437517
2192 2.17256 4.10859 -1.31256
7197 -2.02723 2.01324 -1.98146
8271 -0.575029 -1.17146 1.28166
378 1.68792 -5.87416 2.62333
11750 2.16203 -0.680697 4.26181
5637 -3.12965 1.75983 -0.206442
15680 1.79657 -1.34016 -0.743722
1712 2.21406 0.224171 -0.543456
5341 -2.06572 3.40116 -2.80126
10762 1.76338 -2.35794 -2.99481
2791 1.53772 -2.11211 -0.269448
12610 -2.00204 -2.00724 -0.707284
8405 2.65879 -0.027777 -0.403971
601 1.86386 -0.470632 2.92085
757 1.58151 -2.18476 0.132189
7504 -0.696551 -0.0910765 -2.44366
9987 2.25496 -1.57148 2.23058
3632 -0.725068 0.864732 -4.01871
3952 -0.493114 -0.999277 -2.54798
5096 2.08077 2.38283 -0.388733
7270 -1.59468 0.112649 3.93717
3565 -0.625437 -0.197905 0.805379
10793 0.58905 2.20565 -1.5317
14823 1.59519 2.6657 -0.617619
6443 -2.68106 -0.349086 -0.906749
4089 -2.66525 -2.26296 3.05608
1106 1.56852 -0.456346 -0.365133
3990 -0.690527 0.233297 -3.67047
7304 4.72459 2.09201 -0.731946
2156 -1.61655 -1.68813 2.87921
14755 1.87615 0.683577 -0.06
14304 -0.18054 -0.935715 4.2081
7037 -0.902749 -3.14007 2.20814
624 -1.72406 0.487586 -0.640801
3364 2.75779 2.263 -1.83469
11492 1.7217 -0.0951 1.92199
14655 -0.000322931 -1.34168 1.66802
7734 -3.32341 -1.31224 -2.69463
5456 -3.63524 -1.96512 1.62682
3803 -1.90952 1.79757 -0.997141
6991 -1.15795 1.8048 -0.0755395
15527 -2.90301 2.04836 2.39057
10810 0.757849 -0.0450278 -0.985115
11084 0.579721 0.567441 0.100617
14928 -2.02031 -2.11555 4.6563
9370 0.659419 -1.26341 0.710342
2516 -2.16473 -1.69666 1.05796
2151 5.83466 -2.96104 0.65216
6561 -1.04214 -1.80527 2.32273
12208 -0.0432822 2.05899 2.08769
8240 0.207512 0.568226 0.426865
9071 -0.12465 -0.318378 -2.42922
8879 0.363247 1.08388 1.31712
8151 -0.117127 0.837538 0.476485
15195 1.57984 0.452662 -0.403045
8380 -0.19843 -1.33969 0.352904
11140 -0.0248114 2.23633 1.22544
12971 -0.765047 0.261329 -0.943809
14796 0.539059 1.9063 0.235282
3845 1.78154 0.166902 -2.27951
14180 0.0911754 -1.07525 -0.814209
4758 -2.50997 1.91577 0.772141
4286 3.47796 -0.737849 -0.992161
15427 -1.3731 0.0713886 -1.36899
8712 -1.48145 1.37732 -3.43686
13146 0.57619 1.44071 2.74251
5760 1.5353 2.81907 0.254797
5650 -1.38089 1.45768 -1.88241
4781 -1.0311 1.7228 -0.204137
8735 -0.387191 1.51849 1.7234
2329 -0.100408 -0.450329 -1.03331
10597 3.90165 1.20444 -0.58386
5038 2.41988 2.25918 2.50997
13029 -3.67784 2.99526 1.17291
711 2.32812 1.63748 1.60414
9941 -1.69157 2.2365 -0.0770007
14335 -0.521443 -3.40204 -0.176249
5405 1.16116 -0.781432 -1.24825
6816 -1.50319 -0.135404 -0.70739
6584 -2.60628 1.93851 1.71775
15407 2.6929 3.38003 0.940107
12183 -1.8471 -1.45617 -0.470363
7646 0.392987 0.384791 -3.28302
15619 1.00787 -1.32255 -0.318424
5660 1.78251 -2.25228 -1.80634
11172 1.84085 2.61005 0.287954
6216 0.542147 2.75677 1.36485
11974 2.3585 0.0392354 -1.06735
4279 1.91342 -0.609207 0.148602
4256 -1.03557 2.2211 -0.0348273
9341 -1.31335 1.9142 -0.163145
7539 1.78921 2.2071 -0.397156
5608 -2.58065 -2.22601 -1.98368
15414 3.54075 -0.342922 1.35753
12620 -1.04405 1.15354 2.27556
12823 3.28791 -0.54406 2.1967
7496 -0.765879 -0.460561 -3.34482
15786 -0.679617 -1.07384 1.36234
6135 -3.12051 1.29633 -1.92535
558 0.668279 -0.541768 0.48009
5302 1.28684 0.764919 -1.06155
5619 -1.91738 -1.05554 2.93802
12176 2.9773 -1.93705 2.76859
10276 -1.74066 -3.40286 -0.350714
6131 -2.45365 0.500552 -1.25838
9555 -1.42078 1.46161 0.37282
5712 -3.17741 2.03397 -1.77779
6128 1.64834 1.52001 1.71142
8791 -0.715313 -0.672844 -0.550399
47 -0.391522 0.147074 0.85658
3038 1.31636 3.33542 1.2527
15674 -0.891622 -2.33461 -0.138289
8109 0.430007 0.954642 3.66161
1467 1.47473 -1.4111 1.14906
4403 -0.840639 -1.89726 -0.430137
6847 -1.43719 1.33168 4.09316
9523 -1.62504 0.834651 3.02891
8776 -0.641571 3.00986 0.190373
6487 -0.993004 0.292256 -2.42255
2206 1.36699 -0.429615 1.4189
13147 -0.571759 -2.22109 -0.148223
15666 1.68885 0.244073 -0.0167149
2782 -0.865197 3.08502 1.62969
15157 1.02783 1.25529 0.588783
11634 -2.99056 -1.27134 0.999478
6664 1.71444 -0.672423 -1.42512
5472 1.97572 3.43507 1.29937
8593 -3.52442 -1.37976 1.99327
10816 -2.05568 2.19357 0.470178
12189 3.00011 -0.339791 1.35417
475 2.59902 -0.0368718 -1.95059
8976 3.67302 -0.951822 1.54232
13070 0.0409929 0.572499 -2.26123
10150 1.2151 3.44152 0.623532
13084 -0.18326 -0.931039 1.10554
14389 -3.16518 0.608151 -2.45871
2807 -1.86769 2.50452 -2.74352
13416 -0.718716 0.378498 3.98229
1866 -1.85526 -1.33821 1.64912
1830 -1.82498 -2.2592 -0.313164
10853 2.45906 -1.61059 -1.55366
10354 3.38308 0.951263 -2.64711
2581 -1.668 2.19597 -2.23421
15193 -0.356265 -0.950577 -0.124631
12686 -0.592889 -2.07868 0.635779
12621 2.01741 -2.90357 -2.36316
9821 -1.00663 2.24003 -0.136173
15775 0.272498 1.5573 -0.964189
2897 -1.49061 0.789768 -2.89896
906 0.252538 -2.94158 -0.262256
12972 1.05471 -2.72604 -0.116154
3036 -0.734255 -3.87318 1.10489
3370 1.65056 -0.907681 3.20927
14175 2.66116 1.31851 -0.223251
10725 -1.68786 0.957967 -2.89265
14589 0.715543 -1.20233 -2.44776
2425 0.567443 1.1712 1.55967
6380 -4.2486 -2.01842 -2.49903
13481 -2.631 2.34257 3.51323
11967 0.805503 1.54553 -2.57198
761 4.44498 -0.970181 -0.799715
844 -0.80334 0.00798614 -0.710276
7723 -0.152158 0.74211 2.13843
13830 0.793442 0.782461 -0.33362
6699 -1.14765 -2.39552 -0.539561
10916 -0.940224 -4.2772 -2.28877
15751 0.389566 -0.887129 2.17173
10367 1.23046 2.67959 -0.0193977
12126 2.20447 1.39521 -1.66417
12535 -0.711659 1.81475 -1.0298
6897 -0.634067 -3.134 0.521072
5626 -0.0977561 -0.225748 0.744613
4778 -3.38745 -0.88947 -1.29959
8627 2.22024 1.18076 -0.851297
15127 -0.0586817 0.518609 -2.35274
377 2.97939 -1.70789 1.0489
8620 0.856595 -0.0651557 3.03511
2830 -0.68079 -1.90657 -1.85918
5132 -1.9299 0.708714 0.697081
2415 0.768565 -0.431189 1.99443
8268 1.12746 -0.920465 -4.17362
5963 -3.33046 2.38385 -1.27614
5491 1.99116 -0.152551 2.42289
6790 -0.209058 1.04379 2.62878
13158 1.99945 1.35986 0.663855
743 -1.80579 -1.51404 -1.47986
15291 4.70514 -0.211596 -1.8166
12593 1.37256 -2.32759 1.04321
10192 2.69972 0.171237 -2.20535
9813 2.19761 -2.03207 -0.0761319
4835 0.0708283 -0.0135924 -1.70285
1172 1.31109 -3.60151 3.7281
10469 -2.49882 1.53025 -1.05093
9186 0.184751 -0.545575 -2.57792
9758 -2.06199 2.14824 0.170969
3634 -0.955476 0.974697 -1.91892
8742 3.67302 2.6749 -0.165242
8194 1.84816 -1.86134 -1.35634
7121 -0.551888 -2.60419 -3.44548
4898 0.184669 -1.4748 -1.36222
6704 -0.843234 -2.60013 -1.52499
5545 -0.0270586 -1.12452 -1.81262
5493 0.705168 -0.947306 -1.09244
14134 -0.146291 0.0236447 -1.50671
5444 2.01335 0.0409506 0.0261567
13343 2.59952 -0.519678 -1.27434
9272 -0.108515 -0.324201 1.52335
7699 0.839098 -1.07932 0.530994
5225 -1.06844 -1.20265 0.824398
4016 0.553852 -0.687603 -0.456694
2510 -1.93558 -2.09386 -4.11216
5826 -0.0722004 -0.10863 1.79668
12512 1.4222 1.06139 4.00724
10147 -1.45467 -0.520791 -0.626395
177 -0.928576 0.67013 0.7477
5832 -2.83801 -0.239846 -2.21346